LAMMPS (29 Aug 2024 - Update 1)
#######################################################################
#######################################################################
# MD assembly simulation of OS-CG particles with alpha=4 using ChIMES model at 300 K.
#######################################################################
#######################################################################

##########################################
# USER-SPECIFIED VARIABLES
##########################################

variable dt         equal 5.0
variable Tstart     equal 300.0
variable Tstop      equal 300.0
variable Tdamp      equal 500.0
variable atmmass    equal 67256 # Must match value(s) specified in parameter file
variable uc         equal 120
variable nrepl      equal 4
variable params     string A4_params.txt
variable timesteps  equal 10000
variable iofrq      equal 1000


########################################
# GENERAL CONTROLS
########################################

units           real                          # Required for CHIMES pair style
newton          on                            # Required for CHIMES pair style
atom_style      atomic                        # Required for CHIMES pair style
atom_modify     sort 0 0.0                    # Required for CHIMES pair style
atom_modify     map array                     # Required for CHIMES pair style

neighbor        2.0 bin
neigh_modify    delay 0 every 1 check yes     # Required for CHIMES pair style


########################################
# INITIALIZATION CONTROLS - CREATE THE SYSTEM (FCC LATTICE)
######################################################

lattice             fcc ${uc}
lattice             fcc 120
Lattice spacing in x,y,z = 120 120 120
region              box block 0 1 0 1 0 1 units lattice
create_box          1 box                                # use that empty cell to define simulation cell
Created orthogonal box = (0 0 0) to (120 120 120)
  1 by 1 by 1 MPI processor grid
create_atoms        1 box                                # place atoms on lattice points
Created 4 atoms
  using lattice units in orthogonal box = (0 0 0) to (120 120 120)
  create_atoms CPU = 0.000 seconds
replicate           ${nrepl} ${nrepl} ${nrepl}
replicate           4 ${nrepl} ${nrepl}
replicate           4 4 ${nrepl}
replicate           4 4 4
Replication is creating a 4x4x4 = 64 times larger system...
  orthogonal box = (0 0 0) to (480 480 480)
  1 by 1 by 1 MPI processor grid
  256 atoms
  replicate CPU = 0.000 seconds

mass                1 ${atmmass}
mass                1 67256
velocity            all create ${Tstart} 4834834 rot yes mom yes dist gaussian
velocity            all create 300 4834834 rot yes mom yes dist gaussian


########################################
# FORCE FIELD CONTROLS
########################################

pair_style          chimesFF
pair_coeff          * * ${params}
pair_coeff          * * A4_params.txt


########################################
# RESTART CONTROLS
########################################

# restart             10 nvt.a.restart nvt.b.restart


########################################
# RUN, DUMP, AND THERMO CONTROLS
########################################

##### Set the ensemble

variable Tdamp  equal  dt*100.0	# Temperature damping coefficient

fix                 1 all nvt temp ${Tstart} ${Tstop} ${Tdamp}
fix                 1 all nvt temp 300 ${Tstop} ${Tdamp}
fix                 1 all nvt temp 300 300 ${Tdamp}
fix                 1 all nvt temp 300 300 100

##### Define thermo output

thermo_style        custom step time ke pe temp press etotal econserve lx ly lz
thermo              ${iofrq}
thermo              1000
thermo_modify       norm yes

##### Print dump files

#dump                1 all custom ${iofrq} chimes_A4.lammpstrj id type element xu yu zu fx fy fz
#dump_modify         1 element A sort id    #give element names

##### Run the simulation

timestep            ${dt}
timestep            5
run	                ${timesteps}
run	                10000
Generated 0 of 0 mixed pair_coeff terms from geometric mixing rule
Neighbor list info ...
  update: every = 1 steps, delay = 0 steps, check = yes
  max neighbors/atom: 2000, page size: 100000
  master list distance cutoff = 122
  ghost atom cutoff = 122
  binsize = 61, bins = 8 8 8
  1 neighbor lists, perpetual/occasional/extra = 1 0 0
  (1) pair chimesFF, perpetual
      attributes: full, newton on, ghost
      pair build: full/bin/ghost
      stencil: full/ghost/bin/3d
      bin: standard
Per MPI rank memory allocation (min/avg/max) = 2.973 | 2.973 | 2.973 Mbytes
   Step          Time          KinEng         PotEng          Temp          Press          TotEng       Econserve          Lx             Ly             Lz      
         0   0              0.89074988    -14.658963      300            32.985657     -13.768213     -13.768213      480            480            480          
      1000   5000           0.87912047    -14.560025      296.08327      31.606241     -13.680904     -36.031296      480            480            480          
      2000   10000          0.9738427     -14.268115      327.98524      30.075918     -13.294273     -134.61947      480            480            480          
      3000   15000          0.91865849    -13.951672      309.39948      28.281743     -13.033013     -201.24438      480            480            480          
      4000   20000          0.90778111    -13.955218      305.73603      26.239392     -13.047437     -197.56595      480            480            480          
      5000   25000          0.89774002    -14.787751      302.35424      23.955162     -13.890011      17.292678      480            480            480          
      6000   30000          1.0009433     -16.477212      337.11259      21.882733     -15.476268      421.78739      480            480            480          
      7000   35000          0.88591658    -18.529521      298.37217      19.520896     -17.643605      974.4648       480            480            480          
      8000   40000          0.92794175    -22.034009      312.52603      16.233912     -21.106067      1857.3768      480            480            480          
      9000   45000          0.93647635    -26.311847      315.40044      13.380259     -25.375371      2946.0258      480            480            480          
     10000   50000          0.94496531    -31.56135       318.25948      10.578884     -30.616385      4282.4491      480            480            480          
Loop time of 86.8909 on 1 procs for 10000 steps with 256 atoms

Performance: 49.718 ns/day, 0.483 hours/ns, 115.087 timesteps/s, 29.462 katom-step/s
99.6% CPU use with 1 MPI tasks x no OpenMP threads

MPI task timing breakdown:
Section |  min time  |  avg time  |  max time  |%varavg| %total
---------------------------------------------------------------
Pair    | 86.779     | 86.779     | 86.779     |   0.0 | 99.87
Neigh   | 0.031325   | 0.031325   | 0.031325   |   0.0 |  0.04
Comm    | 0.031284   | 0.031284   | 0.031284   |   0.0 |  0.04
Output  | 0.0013961  | 0.0013961  | 0.0013961  |   0.0 |  0.00
Modify  | 0.03582    | 0.03582    | 0.03582    |   0.0 |  0.04
Other   |            | 0.01165    |            |       |  0.01

Nlocal:            256 ave         256 max         256 min
Histogram: 1 0 0 0 0 0 0 0 0 0
Nghost:            795 ave         795 max         795 min
Histogram: 1 0 0 0 0 0 0 0 0 0
Neighs:              0 ave           0 max           0 min
Histogram: 1 0 0 0 0 0 0 0 0 0
FullNghs:         4298 ave        4298 max        4298 min
Histogram: 1 0 0 0 0 0 0 0 0 0

Total # of neighbors = 4298
Ave neighs/atom = 16.789062
Neighbor list builds = 25
Dangerous builds = 0
Total wall time: 0:01:26
