LAMMPS (29 Aug 2024 - Update 1)
Lattice spacing in x,y,z = 120 120 120
Created orthogonal box = (0 0 0) to (120 120 120)
  3 by 3 by 4 MPI processor grid
Created 4 atoms
  using lattice units in orthogonal box = (0 0 0) to (120 120 120)
  create_atoms CPU = 0.002 seconds
Replication is creating a 4x4x4 = 64 times larger system...
  orthogonal box = (0 0 0) to (480 480 480)
  3 by 3 by 4 MPI processor grid
  256 atoms
  replicate CPU = 0.001 seconds
chimesFF: 
chimesFF: 01000011011010001001001010011010100010101010011 0100010101101110110011101101001011011101100101  
chimesFF: 
chimesFF:       _____  _      _____  __  __  ______   _____   ______                _                      
chimesFF:      / ____|| |    |_   _||  \/  ||  ____| / ____| |  ____|              (_)                    
chimesFF:     | |     | |__    | |  | \  / || |__   | (___   | |__    _ __    __ _  _  _ __    ___        
chimesFF:     | |     | '_ \   | |  | |\/| ||  __|   \___ \  |  __|  | '_ \  / _` || || '_ \  / _ \ 
chimesFF:     | |____ | | | | _| |_ | |  | || |____  ____) | | |____ | | | || (_| || || | | ||  __/        
chimesFF:      \_____||_| |_||_____||_|  |_||______||_____/  |______||_| |_| \__, ||_||_| |_| \___|     
chimesFF:                                                                     __/ |                        
chimesFF:                                                                    |___/                         
chimesFF: 
chimesFF:                      Copyright (C) 2020 R.K. Lindsey, L.E. Fried, N. Goldman                     
chimesFF: 
chimesFF: 01000011011010001001001010011010100010101010011 0100010101101110110011101101001011011101100101   
chimesFF: 

************************* WARNING (pair_style chimesFF) ************************
Assuming n-body interactions have longer cutoffs than all (n+1)-body interactions
************************* WARNING (pair_style chimesFF) ************************

chimesFF: Reading parameters from file: A4_params.txt
chimesFF: Using respective 2, 3, and 4-body orders of: 12 5 0
chimesFF: Note: Ignoring polynomial domain; assuming [-1,1]
chimesFF: Will consider 1 atom types:
chimesFF: 	0 1
chimesFF: Will consider 1 atom pair types
chimesFF: Detected version 2 pair specification (no S_DELTA)
chimesFF: 	0 1 1
chimesFF: Read the following pair type information:
chimesFF: 	1 1 r_cut_in: 48.00000 r_cut_out: 120.00000 MORSE 60.00000
chimesFF: Will use cutoff style TERSOFF
 0.75000
chimesFF: Will use single atom energy offsets: 
chimesFF: 	1 1 -2.80025
chimesFF: Will use default penalty distance: 0.01000
chimesFF: Will use default penalty scaling: 10000.00000
chimesFF: Read 2B parameters for pair: 0 1 1
chimesFF: 	0 134.64429
chimesFF: 	1 252.41652
chimesFF: 	2 370.67574
chimesFF: 	3 57.11718
chimesFF: 	4 78.32130
chimesFF: 	5 -106.19996
chimesFF: 	6 100.98361
chimesFF: 	7 -28.83502
chimesFF: 	8 67.38984
chimesFF: 	9 -24.80710
chimesFF: 	10 33.57355
chimesFF: 	11 -7.45618
chimesFF: Built the following 2-body pair "slow" map:
chimesFF: 	0 11(i: 0)
chimesFF: Built the following 2-body pair "fast" map:
chimesFF: 	11: 0 0
chimesFF: Read 3B parameters for triplet: 0 1 1 1
chimesFF: 	0 1 1 2905.57313
chimesFF: 	1 0 1 2905.57313
chimesFF: 	1 1 0 2905.57313
chimesFF: 	0 1 2 -310.76125
chimesFF: 	1 0 2 -310.76125
chimesFF: 	0 2 1 -310.76125
chimesFF: 	2 0 1 -310.76125
chimesFF: 	1 2 0 -310.76125
chimesFF: 	2 1 0 -310.76125
chimesFF: 	0 1 3 1193.73051
chimesFF: 	1 0 3 1193.73051
chimesFF: 	0 3 1 1193.73051
chimesFF: 	3 0 1 1193.73051
chimesFF: 	1 3 0 1193.73051
chimesFF: 	3 1 0 1193.73051
chimesFF: 	0 1 4 -313.10264
chimesFF: 	1 0 4 -313.10264
chimesFF: 	0 4 1 -313.10264
chimesFF: 	4 0 1 -313.10264
chimesFF: 	1 4 0 -313.10264
chimesFF: 	4 1 0 -313.10264
chimesFF: 	0 2 2 -187.36840
chimesFF: 	2 0 2 -187.36840
chimesFF: 	2 2 0 -187.36840
chimesFF: 	0 2 3 -74.95965
chimesFF: 	2 0 3 -74.95965
chimesFF: 	0 3 2 -74.95965
chimesFF: 	3 0 2 -74.95965
chimesFF: 	2 3 0 -74.95965
chimesFF: 	3 2 0 -74.95965
chimesFF: 	0 2 4 11.18679
chimesFF: 	2 0 4 11.18679
chimesFF: 	0 4 2 11.18679
chimesFF: 	4 0 2 11.18679
chimesFF: 	2 4 0 11.18679
chimesFF: 	4 2 0 11.18679
chimesFF: 	0 3 3 579.81812
chimesFF: 	3 0 3 579.81812
chimesFF: 	3 3 0 579.81812
chimesFF: 	0 3 4 -85.35445
chimesFF: 	3 0 4 -85.35445
chimesFF: 	0 4 3 -85.35445
chimesFF: 	4 0 3 -85.35445
chimesFF: 	3 4 0 -85.35445
chimesFF: 	4 3 0 -85.35445
chimesFF: 	0 4 4 24.49092
chimesFF: 	4 0 4 24.49092
chimesFF: 	4 4 0 24.49092
chimesFF: 	1 1 1 -10178.16885
chimesFF: 	1 1 2 3353.58145
chimesFF: 	1 2 1 3353.58145
chimesFF: 	2 1 1 3353.58145
chimesFF: 	1 1 3 -4365.78431
chimesFF: 	1 3 1 -4365.78431
chimesFF: 	3 1 1 -4365.78431
chimesFF: 	1 1 4 1178.21375
chimesFF: 	1 4 1 1178.21375
chimesFF: 	4 1 1 1178.21375
chimesFF: 	1 2 2 -503.26634
chimesFF: 	2 1 2 -503.26634
chimesFF: 	2 2 1 -503.26634
chimesFF: 	1 2 3 1438.01668
chimesFF: 	2 1 3 1438.01668
chimesFF: 	1 3 2 1438.01668
chimesFF: 	3 1 2 1438.01668
chimesFF: 	2 3 1 1438.01668
chimesFF: 	3 2 1 1438.01668
chimesFF: 	1 2 4 -465.46936
chimesFF: 	2 1 4 -465.46936
chimesFF: 	1 4 2 -465.46936
chimesFF: 	4 1 2 -465.46936
chimesFF: 	2 4 1 -465.46936
chimesFF: 	4 2 1 -465.46936
chimesFF: 	1 3 3 -1954.04278
chimesFF: 	3 1 3 -1954.04278
chimesFF: 	3 3 1 -1954.04278
chimesFF: 	1 3 4 532.96153
chimesFF: 	3 1 4 532.96153
chimesFF: 	1 4 3 532.96153
chimesFF: 	4 1 3 532.96153
chimesFF: 	3 4 1 532.96153
chimesFF: 	4 3 1 532.96153
chimesFF: 	1 4 4 -203.29248
chimesFF: 	4 1 4 -203.29248
chimesFF: 	4 4 1 -203.29248
chimesFF: 	2 2 2 -656.86954
chimesFF: 	2 2 3 -142.47655
chimesFF: 	2 3 2 -142.47655
chimesFF: 	3 2 2 -142.47655
chimesFF: 	2 2 4 -7.58245
chimesFF: 	2 4 2 -7.58245
chimesFF: 	4 2 2 -7.58245
chimesFF: 	2 3 3 758.69729
chimesFF: 	3 2 3 758.69729
chimesFF: 	3 3 2 758.69729
chimesFF: 	2 3 4 -174.16367
chimesFF: 	3 2 4 -174.16367
chimesFF: 	2 4 3 -174.16367
chimesFF: 	4 2 3 -174.16367
chimesFF: 	3 4 2 -174.16367
chimesFF: 	4 3 2 -174.16367
chimesFF: 	2 4 4 35.91689
chimesFF: 	4 2 4 35.91689
chimesFF: 	4 4 2 35.91689
chimesFF: 	3 3 3 -903.42485
chimesFF: 	3 3 4 257.56084
chimesFF: 	3 4 3 257.56084
chimesFF: 	4 3 3 257.56084
chimesFF: 	3 4 4 -98.40565
chimesFF: 	4 3 4 -98.40565
chimesFF: 	4 4 3 -98.40565
chimesFF: 	4 4 4 30.12618
chimesFF: Built the following 3-body pair "slow" map:
chimesFF: 	0 111111
chimesFF: Built the following 3-body pair "fast" map:
chimesFF: 	0 0
Attempting to match LAMMPS and ChIMES atom types by comparing masses. Looking for matches within a tolerance of 1e-3.
LAMMPS atom type idx: 1 LAMMPS mass: 67256.00000 ; ChIMES atom type idx: 0 ChIMES mass: 67256.00000 ... status: 
Match
chimesFF: 	Setting 3-body max cutoff to: 120.00000
Generated 0 of 0 mixed pair_coeff terms from geometric mixing rule
Neighbor list info ...
  update: every = 1 steps, delay = 0 steps, check = yes
  max neighbors/atom: 2000, page size: 100000
  master list distance cutoff = 122
  ghost atom cutoff = 122
  binsize = 61, bins = 8 8 8
  1 neighbor lists, perpetual/occasional/extra = 1 0 0
  (1) pair chimesFF, perpetual
      attributes: full, newton on, ghost
      pair build: full/bin/ghost
      stencil: full/ghost/bin/3d
      bin: standard
Setting up Verlet run ...
  Unit style    : real
  Current step  : 0
  Time step     : 5
Updating chimesFF neighbor lists...
	Rank 0 3-body list size: 365
	Rank 0 4-body list size: 0
	...update complete
Per MPI rank memory allocation (min/avg/max) = 2.948 | 2.948 | 2.948 Mbytes
   Step          Time          KinEng         PotEng          Temp          Press          TotEng       Econserve          Lx             Ly             Lz      
         0   0              0.89074988    -14.658963      300            32.985657     -13.768213     -13.768213      480            480            480          
Updating chimesFF neighbor lists...
	Rank 0 3-body list size: 135
	Rank 0 4-body list size: 0
	...update complete
      1000   5000           0.87132254    -14.55664       293.45697      31.598027     -13.685317     -34.905708      480            480            480          
Updating chimesFF neighbor lists...
	Rank 0 3-body list size: 152
	Rank 0 4-body list size: 0
	...update complete
      2000   10000          0.85366605    -14.249335      287.51036      30.037445     -13.395669     -108.76322      480            480            480          
Updating chimesFF neighbor lists...
	Rank 0 3-body list size: 124
	Rank 0 4-body list size: 0
	...update complete
      3000   15000          0.8499915     -13.880333      286.27279      28.228558     -13.030341     -201.92397      480            480            480          
Updating chimesFF neighbor lists...
	Rank 0 3-body list size: 78
	Rank 0 4-body list size: 0
	...update complete
      4000   20000          0.88605171    -13.717986      298.41768      26.275156     -12.831935     -252.51243      480            480            480          
Updating chimesFF neighbor lists...
	Rank 0 3-body list size: 78
	Rank 0 4-body list size: 0
	...update complete
Updating chimesFF neighbor lists...
	Rank 0 3-body list size: 78
	Rank 0 4-body list size: 0
	...update complete
      5000   25000          0.9043222     -14.001859      304.57109      24.024334     -13.097537     -184.78876      480            480            480          
Updating chimesFF neighbor lists...
	Rank 0 3-body list size: 78
	Rank 0 4-body list size: 0
	...update complete
Updating chimesFF neighbor lists...
	Rank 0 3-body list size: 72
	Rank 0 4-body list size: 0
	...update complete
      6000   30000          0.93710093    -15.075048      315.6108       21.059685     -14.137947      80.516946      480            480            480          
Updating chimesFF neighbor lists...
	Rank 0 3-body list size: 72
	Rank 0 4-body list size: 0
	...update complete
Updating chimesFF neighbor lists...
	Rank 0 3-body list size: 118
	Rank 0 4-body list size: 0
	...update complete
Updating chimesFF neighbor lists...
	Rank 0 3-body list size: 117
	Rank 0 4-body list size: 0
	...update complete
      7000   35000          0.90831736    -17.515761      305.91664      17.601451     -16.607443      710.24061      480            480            480          
Updating chimesFF neighbor lists...
	Rank 0 3-body list size: 117
	Rank 0 4-body list size: 0
	...update complete
Updating chimesFF neighbor lists...
	Rank 0 3-body list size: 117
	Rank 0 4-body list size: 0
	...update complete
Updating chimesFF neighbor lists...
	Rank 0 3-body list size: 117
	Rank 0 4-body list size: 0
	...update complete
      8000   40000          0.93183909    -21.308118      313.83863      14.318185     -20.376278      1671.275       480            480            480          
Updating chimesFF neighbor lists...
	Rank 0 3-body list size: 117
	Rank 0 4-body list size: 0
	...update complete
Updating chimesFF neighbor lists...
	Rank 0 3-body list size: 117
	Rank 0 4-body list size: 0
	...update complete
Updating chimesFF neighbor lists...
	Rank 0 3-body list size: 72
	Rank 0 4-body list size: 0
	...update complete
      9000   45000          0.93737707    -25.891936      315.7038       11.403315     -24.954559      2838.7095      480            480            480          
Updating chimesFF neighbor lists...
	Rank 0 3-body list size: 72
	Rank 0 4-body list size: 0
	...update complete
Updating chimesFF neighbor lists...
	Rank 0 3-body list size: 72
	Rank 0 4-body list size: 0
	...update complete
     10000   50000          0.94339082    -31.110281      317.7292       8.598386      -30.16689       4167.8192      480            480            480          
Loop time of 6.55356 on 36 procs for 10000 steps with 256 atoms

Performance: 659.184 ns/day, 0.036 hours/ns, 1525.888 timesteps/s, 390.627 katom-step/s
99.6% CPU use with 36 MPI tasks x no OpenMP threads

MPI task timing breakdown:
Section |  min time  |  avg time  |  max time  |%varavg| %total
---------------------------------------------------------------
Pair    | 1.6995     | 3.5439     | 6.1584     |  60.1 | 54.08
Neigh   | 0.0030605  | 0.0041392  | 0.0046387  |   0.6 |  0.06
Comm    | 0.31811    | 2.9256     | 4.7674     |  66.0 | 44.64
Output  | 0.00025524 | 0.00040943 | 0.00048237 |   0.0 |  0.01
Modify  | 0.031656   | 0.03895    | 0.046403   |   1.7 |  0.59
Other   |            | 0.04055    |            |       |  0.62

Nlocal:        7.11111 ave          11 max           4 min
Histogram: 2 4 6 0 9 11 0 1 1 2
Nghost:        151.139 ave         158 max         147 min
Histogram: 4 6 7 7 4 2 1 1 2 2
Neighs:              0 ave           0 max           0 min
Histogram: 36 0 0 0 0 0 0 0 0 0
FullNghs:      117.556 ave         181 max          65 min
Histogram: 2 4 3 3 9 7 5 0 1 2

Total # of neighbors = 4232
Ave neighs/atom = 16.53125
Neighbor list builds = 19
Dangerous builds = 0
Total wall time: 0:00:06
