LAMMPS (29 Aug 2024 - Update 1)
##########################################
# USER-SPECIFIED VARIABLES
##########################################

variable temp                equal 300                          # Temperature (K)
variable seed                equal 1866                         # Random seed
variable iofrq               equal 4                            # Output frequency
variable tstep               equal 0.05                         # Timestep (fs)
variable run_steps           equal 100                          # Number of MD steps

variable data_file           string data.in

########################################
# GENERAL CONTROLS
########################################

units           real                                     # Required for CHIMES pair style
newton          on                                       # Required for CHIMES pair style
atom_style      atomic                                   # No charges as in full
atom_modify     sort 0 0.0                               # Prevent sorting

########################################
# NEIGHBOR LIST SETUP
########################################

neighbor        1.0 bin
neigh_modify    delay 0 every 1 check yes

########################################
# INITIALIZATION CONTROLS
########################################

read_data       ${data_file}
read_data       data.in
Reading data file ...
  orthogonal box = (0 0 0) to (8.2 8.2 8.2)
  3 by 3 by 4 MPI processor grid
  reading atoms ...
  54 atoms
  read_data CPU = 0.006 seconds

velocity        all create ${temp} ${seed} loop all mom yes rot yes dist gaussian
velocity        all create 300 ${seed} loop all mom yes rot yes dist gaussian
velocity        all create 300 1866 loop all mom yes rot yes dist gaussian

########################################
# FORCE FIELD CONTROLS
########################################

# Number of "chimesFF for_fitting" entries should match
# the number of *.fm_setup.in files

pair_style      hybrid/overlay chimesFF for_fitting chimesFF for_fitting

pair_coeff      * * chimesFF 1 0params.txt.reduced
pair_coeff      * * chimesFF 2 1params.txt.reduced

########################################
# ENSEMBLE CONTROLS
########################################

fix             1 all nvt temp ${temp} ${temp} 5
fix             1 all nvt temp 300 ${temp} 5
fix             1 all nvt temp 300 300 5

########################################
# THERMO OUTPUT CONTROLS
########################################

compute         ke_tensor all temp

thermo_style    custom step time ke pe etotal temp press pxx pyy pzz pxy pxz pyz vol c_ke_tensor[1] c_ke_tensor[2] c_ke_tensor[3] c_ke_tensor[4] c_ke_tensor[5] c_ke_tensor[6]

thermo_modify   line one format float %20.5f flush yes
thermo          ${iofrq}
thermo          4

########################################
# DUMP CONTROLS
########################################

dump            1 all custom ${iofrq} traj.lammpstrj element xu yu zu fx fy fz
dump            1 all custom 4 traj.lammpstrj element xu yu zu fx fy fz

dump_modify     1 element H O sort id

########################################
# RESTART CONTROLS
########################################

restart         10000 restart.*

########################################
# RUN CONTROLS
########################################

timestep        ${tstep}
timestep        0.05

run             ${run_steps}
run             100

CITE-CITE-CITE-CITE-CITE-CITE-CITE-CITE-CITE-CITE-CITE-CITE-CITE

Your simulation uses code contributions which should be cited:

- Type Label Framework: https://doi.org/10.1021/acs.jpcb.3c08419

@Article{Gissinger24,
 author = {Jacob R. Gissinger, Ilia Nikiforov, Yaser Afshar, Brendon Waters, Moon-ki Choi, Daniel S. Karls, Alexander Stukowski, Wonpil Im, Hendrik Heinz, Axel Kohlmeyer, and Ellad B. Tadmor},
 title = {Type Label Framework for Bonded Force Fields in LAMMPS},
 journal = {J. Phys. Chem. B},
 year =    2024,
 volume =  128,
 number =  13,
 pages =   {3282–-3297}
}

CITE-CITE-CITE-CITE-CITE-CITE-CITE-CITE-CITE-CITE-CITE-CITE-CITE

Generated 0 of 1 mixed pair_coeff terms from geometric mixing rule
Neighbor list info ...
  update: every = 1 steps, delay = 0 steps, check = yes
  max neighbors/atom: 2000, page size: 100000
  master list distance cutoff = 8
  ghost atom cutoff = 8
  binsize = 4, bins = 3 3 3
  2 neighbor lists, perpetual/occasional/extra = 2 0 0
  (1) pair chimesFF, perpetual, trim from (2)
      attributes: full, newton on, ghost, cut 4.5
      pair build: trim
      stencil: none
      bin: none
  (2) pair chimesFF, perpetual
      attributes: full, newton on, ghost
      pair build: full/bin/ghost
      stencil: full/ghost/bin/3d
      bin: standard
Per MPI rank memory allocation (min/avg/max) = 3.639 | 3.64 | 3.64 Mbytes
   Step          Time          KinEng         PotEng         TotEng          Temp          Press           Pxx            Pyy            Pzz            Pxy            Pxz            Pyz           Volume     c_ke_tensor[1] c_ke_tensor[2] c_ke_tensor[3] c_ke_tensor[4] c_ke_tensor[5] c_ke_tensor[6]
         0               0.00000             47.39488          -2920.92926          -2873.53439            300.00000         -56605.36697         -56855.02521         -58893.59758         -54067.47812             12.11930          -1835.16979         -14493.07936            551.36800             33.64908             24.63813             36.50256            -10.34195              6.12349             -2.44162
         4               0.20000             47.28117          -2920.81541          -2873.53424            299.28021         -56413.22062         -55516.72874         -58784.94462         -54937.98852            308.74017          -2653.07374         -14164.58862            551.36800             33.70331             25.11628             35.74274            -10.18053              6.13098             -1.87229
         8               0.40000             47.17999          -2920.71375          -2873.53376            298.63980         -56167.15444         -54215.82309         -58491.33060         -55794.30962            564.75089          -3440.64725         -13714.44877            551.36800             33.79005             25.63565             34.93428             -9.92837              6.16685             -1.36041
        12               0.60000             47.11098          -2920.64360          -2873.53261            298.20300         -55869.91131         -52973.48213         -58008.31190         -56627.93988            775.90938          -4184.63641         -13145.54702            551.36800             33.92598             26.18642             34.10957             -9.57987              6.23460             -0.91282
        16               0.80000             47.08804          -2920.61863          -2873.53060            298.05775         -55522.69927         -51821.62150         -57338.04047         -57408.43583            936.31651          -4883.23594         -12466.21163            551.36800             34.11855             26.75813             33.29939             -9.13681              6.33670             -0.53230
        20               1.00000             47.11912          -2920.64675          -2873.52762            298.25452         -55129.80795         -50786.13669         -56486.72733         -58116.55983           1042.75505          -5529.26188         -11688.36722            551.36800             34.36681             27.34018             32.53126             -8.60935              6.47405             -0.21757
        24               1.20000             47.20699          -2920.73076          -2873.52377            298.81072         -54695.13769         -49888.59227         -55461.95059         -58734.87022           1094.52507          -6117.16302         -10827.51360            551.36800             34.66355             27.92233             31.82811             -8.01619              6.64474              0.03654
        28               1.40000             47.35073          -2920.87001          -2873.51929            299.72052         -54225.03324         -49146.38501         -54277.71790         -59250.99683           1095.71436          -6636.65550          -9898.48048            551.36800             34.99843             28.49511             31.20792             -7.38365              6.84309              0.23850
        32               1.60000             47.54712          -2921.06173          -2873.51461            300.96362         -53716.24045         -48566.16561         -52937.09676         -59645.45897           1050.69654          -7080.67399          -8922.36335            551.36800             35.36073             29.04986             30.68365             -6.74374              7.05941              0.39916
        36               1.80000             47.79131          -2921.30167          -2873.51036            302.50933         -53174.34472         -48156.43542         -51461.05911         -59905.53964            972.83003          -7438.77645          -7920.06171            551.36800             35.74093             29.57844             30.26325             -6.13148              7.28046              0.53079
        40               2.00000             48.07685          -2921.58418          -2873.50733            304.31671         -52605.69518         -47920.26798         -49874.97138         -60021.84617            870.22638          -7697.31702          -6911.88018            551.36800             36.13038             30.07329             29.95003             -5.58140              7.49062              0.64562
        44               2.20000             48.39442          -2921.90092          -2873.50650            306.32689         -52014.53882         -47853.68561         -48201.80274         -59988.12810            755.05898          -7844.98813          -5918.25749            551.36800             36.51960             30.52664             29.74260             -5.12421              7.67404              0.75473
        48               2.40000             48.73066          -2922.23963          -2873.50898            308.45520         -51407.44257         -47949.01534         -46464.80150         -59808.51088            637.86962          -7870.73525          -4958.80295            551.36800             36.89595             30.93017             29.63520             -4.78396              7.81678              0.86710
        52               2.60000             49.06730          -2922.58329          -2873.51599            310.58607         -50781.86444         -48185.17585         -44681.88998         -59478.52748            525.27624          -7765.54539          -4055.71139            551.36800             37.24188             31.27448             29.61824             -4.57603              7.90877              0.98904
        56               2.80000             49.38110          -2922.90995          -2873.52885            312.57239         -50141.99734         -48546.79645         -42883.40988         -58995.78569            432.58687          -7528.33367          -3220.72957            551.36800             37.53411             31.54922             29.67888             -4.50619              7.94504              1.12375
        60               3.00000             49.64533          -2923.19414          -2873.54882            314.24487         -49500.70659         -49018.46091         -41117.90961         -58365.74924            357.42123          -7155.47091          -2467.03470            551.36800             37.74489             31.74377             29.80200             -4.57063              7.92581              1.27145
        64               3.20000             49.83225          -2923.40931          -2873.57705            315.42808         -48858.04063         -49575.11373         -39400.20220         -57598.80597            308.36099          -6652.72940          -1806.74653            551.36800             37.84490             31.84788             29.97173             -4.75690              7.85593              1.42978
        68               3.40000             49.91584          -2923.53031          -2873.61447            315.95715         -48213.36786         -50187.46422         -37746.72467         -56705.91468            295.28360          -6025.40877          -1242.41966            551.36800             37.80582             31.85275             30.17311             -5.04612              7.74443              1.59478
        72               3.60000             49.87527          -2923.53693          -2873.66166            315.70036         -47577.30195         -50834.27496         -36189.24125         -55708.38966            316.96927          -5284.57593           -784.18185            551.36800             37.60450             31.75254             30.39350             -5.41475              7.60295              1.76117
        76               3.80000             49.69767          -2923.41642          -2873.71875            314.57617         -46958.91714         -51499.30999         -34754.19318         -54623.24824            368.25652          -4443.11375           -435.43054            551.36800             37.22630             31.54545             30.62358             -5.83664              7.44436              1.92257
        80               4.00000             49.38025          -2923.16565          -2873.78540            312.56701         -46377.52266         -52180.58094         -33477.52120         -53474.46584            445.09570          -3517.91906           -199.49952            551.36800             36.66722             31.23495             30.85834             -6.28510              7.28182              2.07221
        84               4.20000             48.93208          -2922.79283          -2873.86075            309.73019         -45839.00475         -52854.39179         -32374.48769         -52288.13476            551.49641          -2528.98798            -68.34876            551.36800             35.93577             30.83090             31.09750             -6.73424              7.12784              2.20347
        88               4.40000             48.37438          -2922.31790          -2873.94351            306.20007         -45353.82893         -53505.63083         -31466.79817         -51089.05778            681.64369          -1492.12818            -37.23283            551.36800             35.05359             30.34990             31.34527             -7.16042              6.99392              2.31041
        92               4.60000             47.73991          -2921.77197          -2874.03206            302.18396         -44933.75688         -54127.94620         -30774.03494         -49899.28950            831.29356           -426.36378            -97.86813            551.36800             34.05477             29.81528             31.60977             -7.54385              6.89035              2.38811
        96               4.80000             47.07082          -2921.19542          -2874.12460            297.94878         -44590.93381         -54717.51751         -30314.13641         -48741.14750           1000.35916            648.48053           -241.38896            551.36800             32.98437             29.25595             31.90132             -7.86952              6.82601              2.43310
       100               5.00000             46.41558          -2920.63487          -2874.21930            293.80121         -44339.52676         -55270.50966         -30095.79759         -47652.27304           1186.07773           1710.12098           -459.79919            551.36800             31.89613             28.70469             32.23034             -8.12779              6.80841              2.44349
Loop time of 0.407979 on 36 procs for 100 steps with 54 atoms

Performance: 1.059 ns/day, 22.666 hours/ns, 245.111 timesteps/s, 13.236 katom-step/s
97.3% CPU use with 36 MPI tasks x no OpenMP threads

MPI task timing breakdown:
Section |  min time  |  avg time  |  max time  |%varavg| %total
---------------------------------------------------------------
Pair    | 0.00033332 | 0.082247   | 0.37564    |  32.4 | 20.16
Neigh   | 0          | 0          | 0          |   0.0 |  0.00
Comm    | 0.024282   | 0.3174     | 0.39938    |  16.5 | 77.80
Output  | 0.0033886  | 0.0048359  | 0.0069016  |   1.4 |  1.19
Modify  | 0.00067959 | 0.00096619 | 0.0012627  |   0.0 |  0.24
Other   |            | 0.002529   |            |       |  0.62

Nlocal:            1.5 ave           3 max           0 min
Histogram: 10 0 0 7 0 0 10 0 0 9
Nghost:        624.028 ave         655 max         596 min
Histogram: 6 2 5 1 4 5 3 2 5 3
Neighs:              0 ave           0 max           0 min
Histogram: 36 0 0 0 0 0 0 0 0 0
FullNghs:      54.8889 ave         121 max           0 min
Histogram: 10 0 2 5 0 4 6 0 4 5

Total # of neighbors = 1976
Ave neighs/atom = 36.592593
Neighbor list builds = 0
Dangerous builds = 0
Total wall time: 0:00:00
