LAMMPS data file for simulation

54 atoms
2 atom types				
				
0.0 8.20 xlo xhi				
0.0 8.20 ylo yhi				
0.0 8.20 zlo zhi				
				
Masses				

1 1.008   # Hydrogen				
2 15.9990  # Oxygen				
				
				
				
Atoms				
				
1	1	0.708542769	2.637267995	5.512061335
2	1	2.258678406	2.824518162	5.899469904
3	1	5.372150244	6.171718246	0.659649149
4	1	4.173400764	5.222765355	1.049486232
5	1	5.757899776	1.320813374	2.666551368
6	1	6.653361541	2.44512414	1.946826795
7	1	0.158118607	0.699586497	4.638207301
8	1	-0.838865328	1.787389459	4.290888616
9	1	6.75762989	6.930182276	6.460853819
10	1	7.384183203	7.603899831	7.927654904
11	1	6.744743906	2.160562702	6.283567948
12	1	6.100853973	2.726106747	7.637734681
13	1	4.359798951	1.766202882	6.372522195
14	1	3.404028469	0.698081268	5.563423453
15	1	6.007733969	4.211947445	9.395174058
16	1	7.543938532	4.052846087	8.835126923
17	1	5.159997052	3.854300154	5.595927344
18	1	4.370034413	4.751806898	4.658807987
19	1	4.804696434	-0.749256062	2.056732404
20	1	3.763272201	0.527490733	1.692251436
21	1	2.939702192	2.40392606	9.040659976
22	1	2.836112649	1.360242259	7.876961911
23	1	2.013691879	5.600173236	3.688645426
24	1	1.992531903	4.261539577	4.38684728
25	1	3.79556064	7.773112734	3.832191811
26	1	3.048774733	6.728511125	4.681224879
27	1	0.253894513	5.535649676	-0.434112774
28	1	0.96698913	4.184145125	-1.198527495
29	1	-0.349267534	0.827060537	9.926128005
30	1	1.122350948	0.606231314	9.191027483
31	1	5.764376506	7.387769814	4.624554752
32	1	6.174740482	5.880879333	4.819438073
33	1	2.003795264	4.35050021	0.627977871
34	1	2.770696566	4.201286574	2.094285306
35	1	8.141346138	6.781928319	3.83798531
36	1	8.93771403	7.430380501	2.689411958
37	2	1.429318287	3.401352792	5.68371308
38	2	4.964643163	5.672286621	1.435210895
39	2	6.661166696	1.728711603	2.639014199
40	2	-0.271310664	1.468041365	5.091311608
41	2	6.927299033	6.814853881	7.481784222
42	2	5.902987784	2.540900558	6.678364739
43	2	3.401305545	1.474297402	6.231076495
44	2	6.756421691	3.574221354	9.262290044
45	2	5.254364086	4.344638563	4.773916346
46	2	4.360386526	0.069538117	2.45625974
47	2	2.825129555	1.387843984	8.848271167
48	2	2.63136187	4.841850287	3.856235879
49	2	3.606434304	7.543161135	4.815980438
50	2	0.567560563	4.602672357	-0.272060367
51	2	0.243246384	0.147771679	9.386140165
52	2	6.594391488	6.851121347	4.861462788
53	2	2.828801944	4.085840428	1.104750427
54	2	9.017074158	6.962848635	3.551259855
